-- Generated [
-- Format      : ECLIPSE keywords (grid geometry and properties) (ASCII)
-- Exported by : Petrel 2016.4 (64-bit) Schlumberger
-- User name   : Administrator
-- Date        : Friday, November 25 2022 09:29:55
-- Project     : EGG.pet
-- Grid        : Part of EGG.FEGRID
-- Generated ]

SPECGRID                               -- Generated : Petrel
  24 37 7 1 F /

COORDSYS                               -- Generated : Petrel
  1 7 INCOMP /

COORD                                  -- Generated : Petrel
  0.00 0.00 4000.00 0.00 0.00 4028.00 8.00 0.00 4000.00 8.00 0.00 4028.00 16.00 0.00 4000.00 16.00 0.00 4028.00 24.00 0.00 4000.00
  24.00 0.00 4028.00 32.00 0.00 4000.00 32.00 0.00 4028.00 40.00 0.00 4000.00 40.00 0.00 4028.00 47.60 0.00 -0.00 47.60 0.00 4028.00
  55.20 0.00 -0.00 55.20 0.00 4028.00 62.80 0.00 -0.00 62.80 0.00 4028.00 70.40 0.00 -0.00 70.40 0.00 4028.00 78.00 0.00 -0.00 78.00
  0.00 4028.00 85.60 0.00 -0.00 85.60 0.00 4028.00 93.20 0.00 -0.00 93.20 0.00 4028.00 100.80 0.00 -0.00 100.80 0.00 4028.00 108.40
  0.00 -0.00 108.40 0.00 4028.00 116.00 0.00 -0.00 116.00 0.00 4028.00 123.60 0.00 -0.00 123.60 0.00 4028.00 131.20 0.00 -0.00
  131.20 0.00 4028.00 138.80 0.00 -0.00 138.80 0.00 4028.00 146.40 0.00 -0.00 146.40 0.00 4028.00 154.00 0.00 -0.00 154.00 0.00
  4028.00 161.60 0.00 -0.00 161.60 0.00 4028.00 169.20 0.00 -0.00 169.20 0.00 4028.00 176.80 0.00 -0.00 176.80 0.00 4028.00 184.40
  0.00 -0.00 184.40 0.00 4028.00 0.00 8.00 4000.00 0.00 8.00 4028.00 8.00 8.00 4000.00 8.00 8.00 4028.00 16.00 8.00 4000.00 16.00
  8.00 4028.00 24.00 8.00 4000.00 24.00 8.00 4028.00 32.00 8.00 4000.00 32.00 8.00 4028.00 40.00 8.00 4000.00 40.00 8.00 4028.00
  48.00 8.00 4000.00 48.00 8.00 4028.00 56.00 8.00 4000.00 56.00 8.00 4028.00 64.00 8.00 4000.00 64.00 8.00 4028.00 71.53 8.00 -0.00
  71.53 8.00 4028.00 79.06 8.00 -0.00 79.06 8.00 4028.00 86.59 8.00 -0.00 86.59 8.00 4028.00 94.12 8.00 -0.00 94.12 8.00 4028.00
  101.65 8.00 -0.00 101.65 8.00 4028.00 109.18 8.00 -0.00 109.18 8.00 4028.00 116.71 8.00 -0.00 116.71 8.00 4028.00 124.24 8.00
  -0.00 124.24 8.00 4028.00 131.76 8.00 -0.00 131.76 8.00 4028.00 139.29 8.00 -0.00 139.29 8.00 4028.00 146.82 8.00 -0.00 146.82
  8.00 4028.00 154.35 8.00 -0.00 154.35 8.00 4028.00 161.88 8.00 -0.00 161.88 8.00 4028.00 169.41 8.00 -0.00 169.41 8.00 4028.00
  176.94 8.00 -0.00 176.94 8.00 4028.00 184.47 8.00 -0.00 184.47 8.00 4028.00 0.00 16.00 4000.00 0.00 16.00 4028.00 8.00 16.00
  4000.00 8.00 16.00 4028.00 16.00 16.00 4000.00 16.00 16.00 4028.00 24.00 16.00 4000.00 24.00 16.00 4028.00 32.00 16.00 4000.00
  32.00 16.00 4028.00 40.00 16.00 4000.00 40.00 16.00 4028.00 48.00 16.00 4000.00 48.00 16.00 4028.00 56.00 16.00 4000.00 56.00
  16.00 4028.00 64.00 16.00 4000.00 64.00 16.00 4028.00 72.00 16.00 4000.00 72.00 16.00 4028.00 80.00 16.00 4000.00 80.00 16.00
  4028.00 88.00 16.00 4000.00 88.00 16.00 4028.00 95.43 16.00 -0.00 95.43 16.00 4028.00 102.86 16.00 -0.00 102.86 16.00 4028.00
  110.29 16.00 -0.00 110.29 16.00 4028.00 117.71 16.00 -0.00 117.71 16.00 4028.00 125.14 16.00 -0.00 125.14 16.00 4028.00 132.57
  16.00 -0.00 132.57 16.00 4028.00 140.00 16.00 -0.00 140.00 16.00 4028.00 147.43 16.00 -0.00 147.43 16.00 4028.00 154.86 16.00
  -0.00 154.86 16.00 4028.00 162.29 16.00 -0.00 162.29 16.00 4028.00 169.71 16.00 -0.00 169.71 16.00 4028.00 177.14 16.00 -0.00
  177.14 16.00 4028.00 184.57 16.00 -0.00 184.57 16.00 4028.00 0.00 24.00 4000.00 0.00 24.00 4028.00 8.00 24.00 4000.00 8.00 24.00
  4028.00 16.00 24.00 4000.00 16.00 24.00 4028.00 24.00 24.00 4000.00 24.00 24.00 4028.00 32.00 24.00 4000.00 32.00 24.00 4028.00
  40.00 24.00 4000.00 40.00 24.00 4028.00 48.00 24.00 4000.00 48.00 24.00 4028.00 56.00 24.00 4000.00 56.00 24.00 4028.00 64.00
  24.00 4000.00 64.00 24.00 4028.00 72.00 24.00 4000.00 72.00 24.00 4028.00 80.00 24.00 4000.00 80.00 24.00 4028.00 88.00 24.00
  4000.00 88.00 24.00 4028.00 96.00 24.00 4000.00 96.00 24.00 4028.00 103.38 24.00 -0.00 103.38 24.00 4028.00 110.77 24.00 -0.00
  110.77 24.00 4028.00 118.15 24.00 -0.00 118.15 24.00 4028.00 125.54 24.00 -0.00 125.54 24.00 4028.00 132.92 24.00 -0.00 132.92
  24.00 4028.00 140.31 24.00 -0.00 140.31 24.00 4028.00 147.69 24.00 -0.00 147.69 24.00 4028.00 155.08 24.00 -0.00 155.08 24.00
  4028.00 162.46 24.00 -0.00 162.46 24.00 4028.00 169.85 24.00 -0.00 169.85 24.00 4028.00 177.23 24.00 -0.00 177.23 24.00 4028.00
  184.62 24.00 -0.00 184.62 24.00 4028.00 0.00 32.00 4000.00 0.00 32.00 4028.00 8.00 32.00 4000.00 8.00 32.00 4028.00 16.00 32.00
  4000.00 16.00 32.00 4028.00 24.00 32.00 4000.00 24.00 32.00 4028.00 32.00 32.00 4000.00 32.00 32.00 4028.00 40.00 32.00 4000.00
  40.00 32.00 4028.00 48.00 32.00 4000.00 48.00 32.00 4028.00 56.00 32.00 4000.00 56.00 32.00 4028.00 64.00 32.00 4000.00 64.00
  32.00 4028.00 72.00 32.00 4000.00 72.00 32.00 4028.00 80.00 32.00 4000.00 80.00 32.00 4028.00 88.00 32.00 4000.00 88.00 32.00
  4028.00 96.00 32.00 4000.00 96.00 32.00 4028.00 104.00 32.00 4000.00 104.00 32.00 4028.00 112.00 32.00 4000.00 112.00 32.00
  4028.00 119.27 32.00 -0.00 119.27 32.00 4028.00 126.55 32.00 -0.00 126.55 32.00 4028.00 133.82 32.00 -0.00 133.82 32.00 4028.00
  141.09 32.00 -0.00 141.09 32.00 4028.00 148.36 32.00 -0.00 148.36 32.00 4028.00 155.64 32.00 -0.00 155.64 32.00 4028.00 162.91
  32.00 -0.00 162.91 32.00 4028.00 170.18 32.00 -0.00 170.18 32.00 4028.00 177.45 32.00 -0.00 177.45 32.00 4028.00 184.73 32.00
  -0.00 184.73 32.00 4028.00 0.00 40.00 4000.00 0.00 40.00 4028.00 8.00 40.00 4000.00 8.00 40.00 4028.00 16.00 40.00 4000.00 16.00
  40.00 4028.00 24.00 40.00 4000.00 24.00 40.00 4028.00 32.00 40.00 4000.00 32.00 40.00 4028.00 40.00 40.00 4000.00 40.00 40.00
  4028.00 48.00 40.00 4000.00 48.00 40.00 4028.00 56.00 40.00 4000.00 56.00 40.00 4028.00 64.00 40.00 4000.00 64.00 40.00 4028.00
  72.00 40.00 4000.00 72.00 40.00 4028.00 80.00 40.00 4000.00 80.00 40.00 4028.00 88.00 40.00 4000.00 88.00 40.00 4028.00 96.00
  40.00 4000.00 96.00 40.00 4028.00 104.00 40.00 4000.00 104.00 40.00 4028.00 112.00 40.00 4000.00 112.00 40.00 4028.00 120.00 40.00
  4000.00 120.00 40.00 4028.00 127.20 40.00 -0.00 127.20 40.00 4028.00 134.40 40.00 -0.00 134.40 40.00 4028.00 141.60 40.00 -0.00
  141.60 40.00 4028.00 148.80 40.00 -0.00 148.80 40.00 4028.00 156.00 40.00 -0.00 156.00 40.00 4028.00 163.20 40.00 -0.00 163.20
  40.00 4028.00 170.40 40.00 -0.00 170.40 40.00 4028.00 177.60 40.00 -0.00 177.60 40.00 4028.00 184.80 40.00 -0.00 184.80 40.00
  4028.00 0.00 48.00 4000.00 0.00 48.00 4028.00 8.00 48.00 4000.00 8.00 48.00 4028.00 16.00 48.00 4000.00 16.00 48.00 4028.00 24.00
  48.00 4000.00 24.00 48.00 4028.00 32.00 48.00 4000.00 32.00 48.00 4028.00 40.00 48.00 4000.00 40.00 48.00 4028.00 48.00 48.00
  4000.00 48.00 48.00 4028.00 56.00 48.00 4000.00 56.00 48.00 4028.00 64.00 48.00 4000.00 64.00 48.00 4028.00 72.00 48.00 4000.00
  72.00 48.00 4028.00 80.00 48.00 4000.00 80.00 48.00 4028.00 88.00 48.00 4000.00 88.00 48.00 4028.00 96.00 48.00 4000.00 96.00
  48.00 4028.00 104.00 48.00 4000.00 104.00 48.00 4028.00 112.00 48.00 4000.00 112.00 48.00 4028.00 120.00 48.00 4000.00 120.00
  48.00 4028.00 128.00 48.00 4000.00 128.00 48.00 4028.00 136.00 48.00 4000.00 136.00 48.00 4028.00 143.00 48.00 -0.00 143.00 48.00
  4028.00 150.00 48.00 -0.00 150.00 48.00 4028.00 157.00 48.00 -0.00 157.00 48.00 4028.00 164.00 48.00 -0.00 164.00 48.00 4028.00
  171.00 48.00 -0.00 171.00 48.00 4028.00 178.00 48.00 -0.00 178.00 48.00 4028.00 185.00 48.00 -0.00 185.00 48.00 4028.00 0.00 56.00
  4000.00 0.00 56.00 4028.00 8.00 56.00 4000.00 8.00 56.00 4028.00 16.00 56.00 4000.00 16.00 56.00 4028.00 24.00 56.00 4000.00 24.00
  56.00 4028.00 32.00 56.00 4000.00 32.00 56.00 4028.00 40.00 56.00 4000.00 40.00 56.00 4028.00 48.00 56.00 4000.00 48.00 56.00
  4028.00 56.00 56.00 4000.00 56.00 56.00 4028.00 64.00 56.00 4000.00 64.00 56.00 4028.00 72.00 56.00 4000.00 72.00 56.00 4028.00
  80.00 56.00 4000.00 80.00 56.00 4028.00 88.00 56.00 4000.00 88.00 56.00 4028.00 96.00 56.00 4000.00 96.00 56.00 4028.00 104.00
  56.00 4000.00 104.00 56.00 4028.00 112.00 56.00 4000.00 112.00 56.00 4028.00 120.00 56.00 4000.00 120.00 56.00 4028.00 128.00
  56.00 4000.00 128.00 56.00 4028.00 136.00 56.00 4000.00 136.00 56.00 4028.00 144.00 56.00 4000.00 144.00 56.00 4028.00 150.86
  56.00 -0.00 150.86 56.00 4028.00 157.71 56.00 -0.00 157.71 56.00 4028.00 164.57 56.00 -0.00 164.57 56.00 4028.00 171.43 56.00
  -0.00 171.43 56.00 4028.00 178.29 56.00 -0.00 178.29 56.00 4028.00 185.14 56.00 -0.00 185.14 56.00 4028.00 0.00 64.00 4000.00 0.00
  64.00 4028.00 8.00 64.00 4000.00 8.00 64.00 4028.00 16.00 64.00 4000.00 16.00 64.00 4028.00 24.00 64.00 4000.00 24.00 64.00
  4028.00 32.00 64.00 4000.00 32.00 64.00 4028.00 40.00 64.00 4000.00 40.00 64.00 4028.00 48.00 64.00 4000.00 48.00 64.00 4028.00
  56.00 64.00 4000.00 56.00 64.00 4028.00 64.00 64.00 4000.00 64.00 64.00 4028.00 72.00 64.00 4000.00 72.00 64.00 4028.00 80.00
  64.00 4000.00 80.00 64.00 4028.00 88.00 64.00 4000.00 88.00 64.00 4028.00 96.00 64.00 4000.00 96.00 64.00 4028.00 104.00 64.00
  4000.00 104.00 64.00 4028.00 112.00 64.00 4000.00 112.00 64.00 4028.00 120.00 64.00 4000.00 120.00 64.00 4028.00 128.00 64.00
  4000.00 128.00 64.00 4028.00 136.00 64.00 4000.00 136.00 64.00 4028.00 144.00 64.00 4000.00 144.00 64.00 4028.00 152.00 64.00
  4000.00 152.00 64.00 4028.00 158.67 64.00 -0.00 158.67 64.00 4028.00 165.33 64.00 -0.00 165.33 64.00 4028.00 172.00 64.00 -0.00
  172.00 64.00 4028.00 178.67 64.00 -0.00 178.67 64.00 4028.00 185.33 64.00 -0.00 185.33 64.00 4028.00 0.00 72.00 4000.00 0.00 72.00
  4028.00 8.00 72.00 4000.00 8.00 72.00 4028.00 16.00 72.00 4000.00 16.00 72.00 4028.00 24.00 72.00 4000.00 24.00 72.00 4028.00
  32.00 72.00 4000.00 32.00 72.00 4028.00 40.00 72.00 4000.00 40.00 72.00 4028.00 48.00 72.00 4000.00 48.00 72.00 4028.00 56.00
  72.00 4000.00 56.00 72.00 4028.00 64.00 72.00 4000.00 64.00 72.00 4028.00 72.00 72.00 4000.00 72.00 72.00 4028.00 80.00 72.00
  4000.00 80.00 72.00 4028.00 88.00 72.00 4000.00 88.00 72.00 4028.00 96.00 72.00 4000.00 96.00 72.00 4028.00 104.00 72.00 4000.00
  104.00 72.00 4028.00 112.00 72.00 4000.00 112.00 72.00 4028.00 120.00 72.00 4000.00 120.00 72.00 4028.00 128.00 72.00 4000.00
  128.00 72.00 4028.00 136.00 72.00 4000.00 136.00 72.00 4028.00 144.00 72.00 4000.00 144.00 72.00 4028.00 152.00 72.00 4000.00
  152.00 72.00 4028.00 160.00 72.00 4000.00 160.00 72.00 4028.00 166.40 72.00 -0.00 166.40 72.00 4028.00 172.80 72.00 -0.00 172.80
  72.00 4028.00 179.20 72.00 -0.00 179.20 72.00 4028.00 185.60 72.00 -0.00 185.60 72.00 4028.00 0.00 80.00 4000.00 0.00 80.00
  4028.00 8.00 80.00 4000.00 8.00 80.00 4028.00 16.00 80.00 4000.00 16.00 80.00 4028.00 24.00 80.00 4000.00 24.00 80.00 4028.00
  32.00 80.00 4000.00 32.00 80.00 4028.00 40.00 80.00 4000.00 40.00 80.00 4028.00 48.00 80.00 4000.00 48.00 80.00 4028.00 56.00
  80.00 4000.00 56.00 80.00 4028.00 64.00 80.00 4000.00 64.00 80.00 4028.00 72.00 80.00 4000.00 72.00 80.00 4028.00 80.00 80.00
  4000.00 80.00 80.00 4028.00 88.00 80.00 4000.00 88.00 80.00 4028.00 96.00 80.00 4000.00 96.00 80.00 4028.00 104.00 80.00 4000.00
  104.00 80.00 4028.00 112.00 80.00 4000.00 112.00 80.00 4028.00 120.00 80.00 4000.00 120.00 80.00 4028.00 128.00 80.00 4000.00
  128.00 80.00 4028.00 136.00 80.00 4000.00 136.00 80.00 4028.00 144.00 80.00 4000.00 144.00 80.00 4028.00 152.00 80.00 4000.00
  152.00 80.00 4028.00 160.00 80.00 4000.00 160.00 80.00 4028.00 168.00 80.00 4000.00 168.00 80.00 4028.00 174.00 80.00 -0.00 174.00
  80.00 4028.00 180.00 80.00 -0.00 180.00 80.00 4028.00 186.00 80.00 -0.00 186.00 80.00 4028.00 0.00 88.00 4000.00 0.00 88.00
  4028.00 8.00 88.00 4000.00 8.00 88.00 4028.00 16.00 88.00 4000.00 16.00 88.00 4028.00 24.00 88.00 4000.00 24.00 88.00 4028.00
  32.00 88.00 4000.00 32.00 88.00 4028.00 40.00 88.00 4000.00 40.00 88.00 4028.00 48.00 88.00 4000.00 48.00 88.00 4028.00 56.00
  88.00 4000.00 56.00 88.00 4028.00 64.00 88.00 4000.00 64.00 88.00 4028.00 72.00 88.00 4000.00 72.00 88.00 4028.00 80.00 88.00
  4000.00 80.00 88.00 4028.00 88.00 88.00 4000.00 88.00 88.00 4028.00 96.00 88.00 4000.00 96.00 88.00 4028.00 104.00 88.00 4000.00
  104.00 88.00 4028.00 112.00 88.00 4000.00 112.00 88.00 4028.00 120.00 88.00 4000.00 120.00 88.00 4028.00 128.00 88.00 4000.00
  128.00 88.00 4028.00 136.00 88.00 4000.00 136.00 88.00 4028.00 144.00 88.00 4000.00 144.00 88.00 4028.00 152.00 88.00 4000.00
  152.00 88.00 4028.00 160.00 88.00 4000.00 160.00 88.00 4028.00 168.00 88.00 4000.00 168.00 88.00 4028.00 176.00 88.00 4000.00
  176.00 88.00 4028.00 181.33 88.00 -0.00 181.33 88.00 4028.00 186.67 88.00 -0.00 186.67 88.00 4028.00 0.00 96.00 4000.00 0.00 96.00
  4028.00 8.00 96.00 4000.00 8.00 96.00 4028.00 16.00 96.00 4000.00 16.00 96.00 4028.00 24.00 96.00 4000.00 24.00 96.00 4028.00
  32.00 96.00 4000.00 32.00 96.00 4028.00 40.00 96.00 4000.00 40.00 96.00 4028.00 48.00 96.00 4000.00 48.00 96.00 4028.00 56.00
  96.00 4000.00 56.00 96.00 4028.00 64.00 96.00 4000.00 64.00 96.00 4028.00 72.00 96.00 4000.00 72.00 96.00 4028.00 80.00 96.00
  4000.00 80.00 96.00 4028.00 88.00 96.00 4000.00 88.00 96.00 4028.00 96.00 96.00 4000.00 96.00 96.00 4028.00 104.00 96.00 4000.00
  104.00 96.00 4028.00 112.00 96.00 4000.00 112.00 96.00 4028.00 120.00 96.00 4000.00 120.00 96.00 4028.00 128.00 96.00 4000.00
  128.00 96.00 4028.00 136.00 96.00 4000.00 136.00 96.00 4028.00 144.00 96.00 4000.00 144.00 96.00 4028.00 152.00 96.00 4000.00
  152.00 96.00 4028.00 160.00 96.00 4000.00 160.00 96.00 4028.00 168.00 96.00 4000.00 168.00 96.00 4028.00 176.00 96.00 4000.00
  176.00 96.00 4028.00 181.33 96.00 -0.00 181.33 96.00 4028.00 186.67 96.00 -0.00 186.67 96.00 4028.00 0.00 104.00 4000.00 0.00
  104.00 4028.00 8.00 104.00 4000.00 8.00 104.00 4028.00 16.00 104.00 4000.00 16.00 104.00 4028.00 24.00 104.00 4000.00 24.00 104.00
  4028.00 32.00 104.00 4000.00 32.00 104.00 4028.00 40.00 104.00 4000.00 40.00 104.00 4028.00 48.00 104.00 4000.00 48.00 104.00
  4028.00 56.00 104.00 4000.00 56.00 104.00 4028.00 64.00 104.00 4000.00 64.00 104.00 4028.00 72.00 104.00 4000.00 72.00 104.00
  4028.00 80.00 104.00 4000.00 80.00 104.00 4028.00 88.00 104.00 4000.00 88.00 104.00 4028.00 96.00 104.00 4000.00 96.00 104.00
  4028.00 104.00 104.00 4000.00 104.00 104.00 4028.00 112.00 104.00 4000.00 112.00 104.00 4028.00 120.00 104.00 4000.00 120.00
  104.00 4028.00 128.00 104.00 4000.00 128.00 104.00 4028.00 136.00 104.00 4000.00 136.00 104.00 4028.00 144.00 104.00 4000.00
  144.00 104.00 4028.00 152.00 104.00 4000.00 152.00 104.00 4028.00 160.00 104.00 4000.00 160.00 104.00 4028.00 168.00 104.00
  4000.00 168.00 104.00 4028.00 176.00 104.00 4000.00 176.00 104.00 4028.00 184.00 104.00 4000.00 184.00 104.00 4028.00 188.00
  104.00 -0.00 188.00 104.00 4028.00 0.00 112.00 4000.00 0.00 112.00 4028.00 8.00 112.00 4000.00 8.00 112.00 4028.00 16.00 112.00
  4000.00 16.00 112.00 4028.00 24.00 112.00 4000.00 24.00 112.00 4028.00 32.00 112.00 4000.00 32.00 112.00 4028.00 40.00 112.00
  4000.00 40.00 112.00 4028.00 48.00 112.00 4000.00 48.00 112.00 4028.00 56.00 112.00 4000.00 56.00 112.00 4028.00 64.00 112.00
  4000.00 64.00 112.00 4028.00 72.00 112.00 4000.00 72.00 112.00 4028.00 80.00 112.00 4000.00 80.00 112.00 4028.00 88.00 112.00
  4000.00 88.00 112.00 4028.00 96.00 112.00 4000.00 96.00 112.00 4028.00 104.00 112.00 4000.00 104.00 112.00 4028.00 112.00 112.00
  4000.00 112.00 112.00 4028.00 120.00 112.00 4000.00 120.00 112.00 4028.00 128.00 112.00 4000.00 128.00 112.00 4028.00 136.00
  112.00 4000.00 136.00 112.00 4028.00 144.00 112.00 4000.00 144.00 112.00 4028.00 152.00 112.00 4000.00 152.00 112.00 4028.00
  160.00 112.00 4000.00 160.00 112.00 4028.00 168.00 112.00 4000.00 168.00 112.00 4028.00 176.00 112.00 4000.00 176.00 112.00
  4028.00 184.00 112.00 4000.00 184.00 112.00 4028.00 188.00 112.00 -0.00 188.00 112.00 4028.00 0.00 120.00 4000.00 0.00 120.00
  4028.00 8.00 120.00 4000.00 8.00 120.00 4028.00 16.00 120.00 4000.00 16.00 120.00 4028.00 24.00 120.00 4000.00 24.00 120.00
  4028.00 32.00 120.00 4000.00 32.00 120.00 4028.00 40.00 120.00 4000.00 40.00 120.00 4028.00 48.00 120.00 4000.00 48.00 120.00
  4028.00 56.00 120.00 4000.00 56.00 120.00 4028.00 64.00 120.00 4000.00 64.00 120.00 4028.00 72.00 120.00 4000.00 72.00 120.00
  4028.00 80.00 120.00 4000.00 80.00 120.00 4028.00 88.00 120.00 4000.00 88.00 120.00 4028.00 96.00 120.00 4000.00 96.00 120.00
  4028.00 104.00 120.00 4000.00 104.00 120.00 4028.00 112.00 120.00 4000.00 112.00 120.00 4028.00 120.00 120.00 4000.00 120.00
  120.00 4028.00 128.00 120.00 4000.00 128.00 120.00 4028.00 136.00 120.00 4000.00 136.00 120.00 4028.00 144.00 120.00 4000.00
  144.00 120.00 4028.00 152.00 120.00 4000.00 152.00 120.00 4028.00 160.00 120.00 4000.00 160.00 120.00 4028.00 168.00 120.00
  4000.00 168.00 120.00 4028.00 176.00 120.00 4000.00 176.00 120.00 4028.00 184.00 120.00 4000.00 184.00 120.00 4028.00 192.00
  120.00 4000.00 192.00 120.00 4028.00 0.00 128.00 4000.00 0.00 128.00 4028.00 8.00 128.00 4000.00 8.00 128.00 4028.00 16.00 128.00
  4000.00 16.00 128.00 4028.00 24.00 128.00 4000.00 24.00 128.00 4028.00 32.00 128.00 4000.00 32.00 128.00 4028.00 40.00 128.00
  4000.00 40.00 128.00 4028.00 48.00 128.00 4000.00 48.00 128.00 4028.00 56.00 128.00 4000.00 56.00 128.00 4028.00 64.00 128.00
  4000.00 64.00 128.00 4028.00 72.00 128.00 4000.00 72.00 128.00 4028.00 80.00 128.00 4000.00 80.00 128.00 4028.00 88.00 128.00
  4000.00 88.00 128.00 4028.00 96.00 128.00 4000.00 96.00 128.00 4028.00 104.00 128.00 4000.00 104.00 128.00 4028.00 112.00 128.00
  4000.00 112.00 128.00 4028.00 120.00 128.00 4000.00 120.00 128.00 4028.00 128.00 128.00 4000.00 128.00 128.00 4028.00 136.00
  128.00 4000.00 136.00 128.00 4028.00 144.00 128.00 4000.00 144.00 128.00 4028.00 152.00 128.00 4000.00 152.00 128.00 4028.00
  160.00 128.00 4000.00 160.00 128.00 4028.00 168.00 128.00 4000.00 168.00 128.00 4028.00 176.00 128.00 4000.00 176.00 128.00
  4028.00 184.00 128.00 4000.00 184.00 128.00 4028.00 192.00 128.00 4000.00 192.00 128.00 4028.00 0.00 136.00 4000.00 0.00 136.00
  4028.00 8.00 136.00 4000.00 8.00 136.00 4028.00 16.00 136.00 4000.00 16.00 136.00 4028.00 24.00 136.00 4000.00 24.00 136.00
  4028.00 32.00 136.00 4000.00 32.00 136.00 4028.00 40.00 136.00 4000.00 40.00 136.00 4028.00 48.00 136.00 4000.00 48.00 136.00
  4028.00 56.00 136.00 4000.00 56.00 136.00 4028.00 64.00 136.00 4000.00 64.00 136.00 4028.00 72.00 136.00 4000.00 72.00 136.00
  4028.00 80.00 136.00 4000.00 80.00 136.00 4028.00 88.00 136.00 4000.00 88.00 136.00 4028.00 96.00 136.00 4000.00 96.00 136.00
  4028.00 104.00 136.00 4000.00 104.00 136.00 4028.00 112.00 136.00 4000.00 112.00 136.00 4028.00 120.00 136.00 4000.00 120.00
  136.00 4028.00 128.00 136.00 4000.00 128.00 136.00 4028.00 136.00 136.00 4000.00 136.00 136.00 4028.00 144.00 136.00 4000.00
  144.00 136.00 4028.00 152.00 136.00 4000.00 152.00 136.00 4028.00 160.00 136.00 4000.00 160.00 136.00 4028.00 168.00 136.00
  4000.00 168.00 136.00 4028.00 176.00 136.00 4000.00 176.00 136.00 4028.00 184.00 136.00 4000.00 184.00 136.00 4028.00 192.00
  136.00 4000.00 192.00 136.00 4028.00 0.00 144.00 4000.00 0.00 144.00 4028.00 8.00 144.00 4000.00 8.00 144.00 4028.00 16.00 144.00
  4000.00 16.00 144.00 4028.00 24.00 144.00 4000.00 24.00 144.00 4028.00 32.00 144.00 4000.00 32.00 144.00 4028.00 40.00 144.00
  4000.00 40.00 144.00 4028.00 48.00 144.00 4000.00 48.00 144.00 4028.00 56.00 144.00 4000.00 56.00 144.00 4028.00 64.00 144.00
  4000.00 64.00 144.00 4028.00 72.00 144.00 4000.00 72.00 144.00 4028.00 80.00 144.00 4000.00 80.00 144.00 4028.00 88.00 144.00
  4000.00 88.00 144.00 4028.00 96.00 144.00 4000.00 96.00 144.00 4028.00 104.00 144.00 4000.00 104.00 144.00 4028.00 112.00 144.00
  4000.00 112.00 144.00 4028.00 120.00 144.00 4000.00 120.00 144.00 4028.00 128.00 144.00 4000.00 128.00 144.00 4028.00 136.00
  144.00 4000.00 136.00 144.00 4028.00 144.00 144.00 4000.00 144.00 144.00 4028.00 152.00 144.00 4000.00 152.00 144.00 4028.00
  160.00 144.00 4000.00 160.00 144.00 4028.00 168.00 144.00 4000.00 168.00 144.00 4028.00 176.00 144.00 4000.00 176.00 144.00
  4028.00 184.00 144.00 4000.00 184.00 144.00 4028.00 192.00 144.00 4000.00 192.00 144.00 4028.00 0.00 152.00 4000.00 0.00 152.00
  4028.00 8.00 152.00 4000.00 8.00 152.00 4028.00 16.00 152.00 4000.00 16.00 152.00 4028.00 24.00 152.00 4000.00 24.00 152.00
  4028.00 32.00 152.00 4000.00 32.00 152.00 4028.00 40.00 152.00 4000.00 40.00 152.00 4028.00 48.00 152.00 4000.00 48.00 152.00
  4028.00 56.00 152.00 4000.00 56.00 152.00 4028.00 64.00 152.00 4000.00 64.00 152.00 4028.00 72.00 152.00 4000.00 72.00 152.00
  4028.00 80.00 152.00 4000.00 80.00 152.00 4028.00 88.00 152.00 4000.00 88.00 152.00 4028.00 96.00 152.00 4000.00 96.00 152.00
  4028.00 104.00 152.00 4000.00 104.00 152.00 4028.00 112.00 152.00 4000.00 112.00 152.00 4028.00 120.00 152.00 4000.00 120.00
  152.00 4028.00 128.00 152.00 4000.00 128.00 152.00 4028.00 136.00 152.00 4000.00 136.00 152.00 4028.00 144.00 152.00 4000.00
  144.00 152.00 4028.00 152.00 152.00 4000.00 152.00 152.00 4028.00 160.00 152.00 4000.00 160.00 152.00 4028.00 168.00 152.00
  4000.00 168.00 152.00 4028.00 176.00 152.00 4000.00 176.00 152.00 4028.00 184.00 152.00 4000.00 184.00 152.00 4028.00 192.00
  152.00 4000.00 192.00 152.00 4028.00 0.00 160.00 4000.00 0.00 160.00 4028.00 8.00 160.00 4000.00 8.00 160.00 4028.00 16.00 160.00
  4000.00 16.00 160.00 4028.00 24.00 160.00 4000.00 24.00 160.00 4028.00 32.00 160.00 4000.00 32.00 160.00 4028.00 40.00 160.00
  4000.00 40.00 160.00 4028.00 48.00 160.00 4000.00 48.00 160.00 4028.00 56.00 160.00 4000.00 56.00 160.00 4028.00 64.00 160.00
  4000.00 64.00 160.00 4028.00 72.00 160.00 4000.00 72.00 160.00 4028.00 80.00 160.00 4000.00 80.00 160.00 4028.00 88.00 160.00
  4000.00 88.00 160.00 4028.00 96.00 160.00 4000.00 96.00 160.00 4028.00 104.00 160.00 4000.00 104.00 160.00 4028.00 112.00 160.00
  4000.00 112.00 160.00 4028.00 120.00 160.00 4000.00 120.00 160.00 4028.00 128.00 160.00 4000.00 128.00 160.00 4028.00 136.00
  160.00 4000.00 136.00 160.00 4028.00 144.00 160.00 4000.00 144.00 160.00 4028.00 152.00 160.00 4000.00 152.00 160.00 4028.00
  160.00 160.00 4000.00 160.00 160.00 4028.00 168.00 160.00 4000.00 168.00 160.00 4028.00 176.00 160.00 4000.00 176.00 160.00
  4028.00 184.00 160.00 4000.00 184.00 160.00 4028.00 192.00 160.00 4000.00 192.00 160.00 4028.00 0.00 168.00 4000.00 0.00 168.00
  4028.00 8.00 168.00 4000.00 8.00 168.00 4028.00 16.00 168.00 4000.00 16.00 168.00 4028.00 24.00 168.00 4000.00 24.00 168.00
  4028.00 32.00 168.00 4000.00 32.00 168.00 4028.00 40.00 168.00 4000.00 40.00 168.00 4028.00 48.00 168.00 4000.00 48.00 168.00
  4028.00 56.00 168.00 4000.00 56.00 168.00 4028.00 64.00 168.00 4000.00 64.00 168.00 4028.00 72.00 168.00 4000.00 72.00 168.00
  4028.00 80.00 168.00 4000.00 80.00 168.00 4028.00 88.00 168.00 4000.00 88.00 168.00 4028.00 96.00 168.00 4000.00 96.00 168.00
  4028.00 104.00 168.00 4000.00 104.00 168.00 4028.00 112.00 168.00 4000.00 112.00 168.00 4028.00 120.00 168.00 4000.00 120.00
  168.00 4028.00 128.00 168.00 4000.00 128.00 168.00 4028.00 136.00 168.00 4000.00 136.00 168.00 4028.00 144.00 168.00 4000.00
  144.00 168.00 4028.00 152.00 168.00 4000.00 152.00 168.00 4028.00 160.00 168.00 4000.00 160.00 168.00 4028.00 168.00 168.00
  4000.00 168.00 168.00 4028.00 176.00 168.00 4000.00 176.00 168.00 4028.00 184.00 168.00 4000.00 184.00 168.00 4028.00 192.00
  168.00 4000.00 192.00 168.00 4028.00 0.00 176.00 4000.00 0.00 176.00 4028.00 8.00 176.00 4000.00 8.00 176.00 4028.00 16.00 176.00
  4000.00 16.00 176.00 4028.00 24.00 176.00 4000.00 24.00 176.00 4028.00 32.00 176.00 4000.00 32.00 176.00 4028.00 40.00 176.00
  4000.00 40.00 176.00 4028.00 48.00 176.00 4000.00 48.00 176.00 4028.00 56.00 176.00 4000.00 56.00 176.00 4028.00 64.00 176.00
  4000.00 64.00 176.00 4028.00 72.00 176.00 4000.00 72.00 176.00 4028.00 80.00 176.00 4000.00 80.00 176.00 4028.00 88.00 176.00
  4000.00 88.00 176.00 4028.00 96.00 176.00 4000.00 96.00 176.00 4028.00 104.00 176.00 4000.00 104.00 176.00 4028.00 112.00 176.00
  4000.00 112.00 176.00 4028.00 120.00 176.00 4000.00 120.00 176.00 4028.00 128.00 176.00 4000.00 128.00 176.00 4028.00 136.00
  176.00 4000.00 136.00 176.00 4028.00 144.00 176.00 4000.00 144.00 176.00 4028.00 152.00 176.00 4000.00 152.00 176.00 4028.00
  160.00 176.00 4000.00 160.00 176.00 4028.00 168.00 176.00 4000.00 168.00 176.00 4028.00 176.00 176.00 4000.00 176.00 176.00
  4028.00 184.00 176.00 4000.00 184.00 176.00 4028.00 188.00 176.00 -0.00 188.00 176.00 4028.00 0.00 184.00 4000.00 0.00 184.00
  4028.00 8.00 184.00 4000.00 8.00 184.00 4028.00 16.00 184.00 4000.00 16.00 184.00 4028.00 24.00 184.00 4000.00 24.00 184.00
  4028.00 32.00 184.00 4000.00 32.00 184.00 4028.00 40.00 184.00 4000.00 40.00 184.00 4028.00 48.00 184.00 4000.00 48.00 184.00
  4028.00 56.00 184.00 4000.00 56.00 184.00 4028.00 64.00 184.00 4000.00 64.00 184.00 4028.00 72.00 184.00 4000.00 72.00 184.00
  4028.00 80.00 184.00 4000.00 80.00 184.00 4028.00 88.00 184.00 4000.00 88.00 184.00 4028.00 96.00 184.00 4000.00 96.00 184.00
  4028.00 104.00 184.00 4000.00 104.00 184.00 4028.00 112.00 184.00 4000.00 112.00 184.00 4028.00 120.00 184.00 4000.00 120.00
  184.00 4028.00 128.00 184.00 4000.00 128.00 184.00 4028.00 136.00 184.00 4000.00 136.00 184.00 4028.00 144.00 184.00 4000.00
  144.00 184.00 4028.00 152.00 184.00 4000.00 152.00 184.00 4028.00 160.00 184.00 4000.00 160.00 184.00 4028.00 168.00 184.00
  4000.00 168.00 184.00 4028.00 176.00 184.00 4000.00 176.00 184.00 4028.00 184.00 184.00 4000.00 184.00 184.00 4028.00 188.00
  184.00 -0.00 188.00 184.00 4028.00 0.00 192.00 4000.00 0.00 192.00 4028.00 8.00 192.00 4000.00 8.00 192.00 4028.00 16.00 192.00
  4000.00 16.00 192.00 4028.00 24.00 192.00 4000.00 24.00 192.00 4028.00 32.00 192.00 4000.00 32.00 192.00 4028.00 40.00 192.00
  4000.00 40.00 192.00 4028.00 48.00 192.00 4000.00 48.00 192.00 4028.00 56.00 192.00 4000.00 56.00 192.00 4028.00 64.00 192.00
  4000.00 64.00 192.00 4028.00 72.00 192.00 4000.00 72.00 192.00 4028.00 80.00 192.00 4000.00 80.00 192.00 4028.00 88.00 192.00
  4000.00 88.00 192.00 4028.00 96.00 192.00 4000.00 96.00 192.00 4028.00 104.00 192.00 4000.00 104.00 192.00 4028.00 112.00 192.00
  4000.00 112.00 192.00 4028.00 120.00 192.00 4000.00 120.00 192.00 4028.00 128.00 192.00 4000.00 128.00 192.00 4028.00 136.00
  192.00 4000.00 136.00 192.00 4028.00 144.00 192.00 4000.00 144.00 192.00 4028.00 152.00 192.00 4000.00 152.00 192.00 4028.00
  160.00 192.00 4000.00 160.00 192.00 4028.00 168.00 192.00 4000.00 168.00 192.00 4028.00 176.00 192.00 4000.00 176.00 192.00
  4028.00 184.00 192.00 4000.00 184.00 192.00 4028.00 188.00 192.00 -0.00 188.00 192.00 4028.00 0.00 200.00 4000.00 0.00 200.00
  4028.00 8.00 200.00 4000.00 8.00 200.00 4028.00 16.00 200.00 4000.00 16.00 200.00 4028.00 24.00 200.00 4000.00 24.00 200.00
  4028.00 32.00 200.00 4000.00 32.00 200.00 4028.00 40.00 200.00 4000.00 40.00 200.00 4028.00 48.00 200.00 4000.00 48.00 200.00
  4028.00 56.00 200.00 4000.00 56.00 200.00 4028.00 64.00 200.00 4000.00 64.00 200.00 4028.00 72.00 200.00 4000.00 72.00 200.00
  4028.00 80.00 200.00 4000.00 80.00 200.00 4028.00 88.00 200.00 4000.00 88.00 200.00 4028.00 96.00 200.00 4000.00 96.00 200.00
  4028.00 104.00 200.00 4000.00 104.00 200.00 4028.00 112.00 200.00 4000.00 112.00 200.00 4028.00 120.00 200.00 4000.00 120.00
  200.00 4028.00 128.00 200.00 4000.00 128.00 200.00 4028.00 136.00 200.00 4000.00 136.00 200.00 4028.00 144.00 200.00 4000.00
  144.00 200.00 4028.00 152.00 200.00 4000.00 152.00 200.00 4028.00 160.00 200.00 4000.00 160.00 200.00 4028.00 168.00 200.00
  4000.00 168.00 200.00 4028.00 176.00 200.00 4000.00 176.00 200.00 4028.00 184.00 200.00 4000.00 184.00 200.00 4028.00 188.00
  200.00 -0.00 188.00 200.00 4028.00 0.00 208.00 4000.00 0.00 208.00 4028.00 8.00 208.00 4000.00 8.00 208.00 4028.00 16.00 208.00
  4000.00 16.00 208.00 4028.00 24.00 208.00 4000.00 24.00 208.00 4028.00 32.00 208.00 4000.00 32.00 208.00 4028.00 40.00 208.00
  4000.00 40.00 208.00 4028.00 48.00 208.00 4000.00 48.00 208.00 4028.00 56.00 208.00 4000.00 56.00 208.00 4028.00 64.00 208.00
  4000.00 64.00 208.00 4028.00 72.00 208.00 4000.00 72.00 208.00 4028.00 80.00 208.00 4000.00 80.00 208.00 4028.00 88.00 208.00
  4000.00 88.00 208.00 4028.00 96.00 208.00 4000.00 96.00 208.00 4028.00 104.00 208.00 4000.00 104.00 208.00 4028.00 112.00 208.00
  4000.00 112.00 208.00 4028.00 120.00 208.00 4000.00 120.00 208.00 4028.00 128.00 208.00 4000.00 128.00 208.00 4028.00 136.00
  208.00 4000.00 136.00 208.00 4028.00 144.00 208.00 4000.00 144.00 208.00 4028.00 152.00 208.00 4000.00 152.00 208.00 4028.00
  160.00 208.00 4000.00 160.00 208.00 4028.00 168.00 208.00 4000.00 168.00 208.00 4028.00 176.00 208.00 4000.00 176.00 208.00
  4028.00 181.33 208.00 -0.00 181.33 208.00 4028.00 186.67 208.00 -0.00 186.67 208.00 4028.00 0.00 216.00 4000.00 0.00 216.00
  4028.00 8.00 216.00 4000.00 8.00 216.00 4028.00 16.00 216.00 4000.00 16.00 216.00 4028.00 24.00 216.00 4000.00 24.00 216.00
  4028.00 32.00 216.00 4000.00 32.00 216.00 4028.00 40.00 216.00 4000.00 40.00 216.00 4028.00 48.00 216.00 4000.00 48.00 216.00
  4028.00 56.00 216.00 4000.00 56.00 216.00 4028.00 64.00 216.00 4000.00 64.00 216.00 4028.00 72.00 216.00 4000.00 72.00 216.00
  4028.00 80.00 216.00 4000.00 80.00 216.00 4028.00 88.00 216.00 4000.00 88.00 216.00 4028.00 96.00 216.00 4000.00 96.00 216.00
  4028.00 104.00 216.00 4000.00 104.00 216.00 4028.00 112.00 216.00 4000.00 112.00 216.00 4028.00 120.00 216.00 4000.00 120.00
  216.00 4028.00 128.00 216.00 4000.00 128.00 216.00 4028.00 136.00 216.00 4000.00 136.00 216.00 4028.00 144.00 216.00 4000.00
  144.00 216.00 4028.00 152.00 216.00 4000.00 152.00 216.00 4028.00 160.00 216.00 4000.00 160.00 216.00 4028.00 168.00 216.00
  4000.00 168.00 216.00 4028.00 176.00 216.00 4000.00 176.00 216.00 4028.00 181.33 216.00 -0.00 181.33 216.00 4028.00 186.67 216.00